Converted from gr_24x23.xyz

1104 atoms
1 atom types


0.62976 60.258047595321 xlo xhi # 
-0.7100 50.410000000000 ylo yhi # 
-20.00 20.0000000 zlo zhi

#original that wroked


#exact size of relaxed graphene in vmd
#0.936002 59.321999 xlo xhi
#1.340690 47.026798 ylo yhi

Masses

1 12.011
#2 1.008 #H
#2 3.016 #T


Atoms # atomic

1 1 1.229756073374 0.710000000000 0.000000000000
2 1 2.459512146748 1.420000000000 0.000000000000
3 1 2.459512146748 2.840000000000 0.000000000000
4 1 3.689268220122 3.550000000000 0.000000000000
5 1 3.689268220122 4.970000000000 0.000000000000
6 1 4.919024293496 5.680000000000 0.000000000000
7 1 4.919024293496 7.100000000000 0.000000000000
8 1 6.148780366870 7.810000000000 0.000000000000
9 1 6.148780366870 9.230000000000 0.000000000000
10 1 7.378536440243 9.940000000000 0.000000000000
11 1 7.378536440243 11.360000000000 0.000000000000
12 1 8.608292513617 12.070000000000 0.000000000000
13 1 8.608292513617 13.490000000000 0.000000000000
14 1 9.838048586991 14.200000000000 0.000000000000
15 1 9.838048586991 15.620000000000 0.000000000000
16 1 11.067804660365 16.330000000000 0.000000000000
17 1 11.067804660365 17.750000000000 0.000000000000
18 1 12.297560733739 18.460000000000 0.000000000000
19 1 12.297560733739 19.880000000000 0.000000000000
20 1 13.527316807113 20.590000000000 0.000000000000
21 1 13.527316807113 22.010000000000 0.000000000000
22 1 14.757072880487 22.720000000000 0.000000000000
23 1 14.757072880487 24.140000000000 0.000000000000
24 1 15.986828953861 24.850000000000 0.000000000000
25 1 15.986828953861 26.270000000000 0.000000000000
26 1 17.216585027235 26.980000000000 0.000000000000
27 1 17.216585027235 28.400000000000 0.000000000000
28 1 18.446341100609 29.110000000000 0.000000000000
29 1 18.446341100609 30.530000000000 0.000000000000
30 1 19.676097173982 31.240000000000 0.000000000000
31 1 19.676097173982 32.660000000000 0.000000000000
32 1 20.905853247356 33.370000000000 0.000000000000
33 1 20.905853247356 34.790000000000 0.000000000000
34 1 22.135609320730 35.500000000000 0.000000000000
35 1 22.135609320730 36.920000000000 0.000000000000
36 1 23.365365394104 37.630000000000 0.000000000000
37 1 23.365365394104 39.050000000000 0.000000000000
38 1 24.595121467478 39.760000000000 0.000000000000
39 1 24.595121467478 41.180000000000 0.000000000000
40 1 25.824877540852 41.890000000000 0.000000000000
41 1 25.824877540852 43.310000000000 0.000000000000
42 1 27.054633614226 44.020000000000 0.000000000000
43 1 27.054633614226 45.440000000000 0.000000000000
44 1 28.284389687600 46.150000000000 0.000000000000
45 1 28.284389687600 47.570000000000 0.000000000000
46 1 29.514145760974 48.280000000000 0.000000000000
47 1 3.689268220122 0.710000000000 0.000000000000
48 1 4.919024293496 1.420000000000 0.000000000000
49 1 4.919024293496 2.840000000000 0.000000000000
50 1 6.148780366870 3.550000000000 0.000000000000
51 1 6.148780366870 4.970000000000 0.000000000000
52 1 7.378536440243 5.680000000000 0.000000000000
53 1 7.378536440243 7.100000000000 0.000000000000
54 1 8.608292513617 7.810000000000 0.000000000000
55 1 8.608292513617 9.230000000000 0.000000000000
56 1 9.838048586991 9.940000000000 0.000000000000
57 1 9.838048586991 11.360000000000 0.000000000000
58 1 11.067804660365 12.070000000000 0.000000000000
59 1 11.067804660365 13.490000000000 0.000000000000
60 1 12.297560733739 14.200000000000 0.000000000000
61 1 12.297560733739 15.620000000000 0.000000000000
62 1 13.527316807113 16.330000000000 0.000000000000
63 1 13.527316807113 17.750000000000 0.000000000000
64 1 14.757072880487 18.460000000000 0.000000000000
65 1 14.757072880487 19.880000000000 0.000000000000
66 1 15.986828953861 20.590000000000 0.000000000000
67 1 15.986828953861 22.010000000000 0.000000000000
68 1 17.216585027235 22.720000000000 0.000000000000
69 1 17.216585027235 24.140000000000 0.000000000000
70 1 18.446341100609 24.850000000000 0.000000000000
71 1 18.446341100609 26.270000000000 0.000000000000
72 1 19.676097173982 26.980000000000 0.000000000000
73 1 19.676097173982 28.400000000000 0.000000000000
74 1 20.905853247356 29.110000000000 0.000000000000
75 1 20.905853247356 30.530000000000 0.000000000000
76 1 22.135609320730 31.240000000000 0.000000000000
77 1 22.135609320730 32.660000000000 0.000000000000
78 1 23.365365394104 33.370000000000 0.000000000000
79 1 23.365365394104 34.790000000000 0.000000000000
80 1 24.595121467478 35.500000000000 0.000000000000
81 1 24.595121467478 36.920000000000 0.000000000000
82 1 25.824877540852 37.630000000000 0.000000000000
83 1 25.824877540852 39.050000000000 0.000000000000
84 1 27.054633614226 39.760000000000 0.000000000000
85 1 27.054633614226 41.180000000000 0.000000000000
86 1 28.284389687600 41.890000000000 0.000000000000
87 1 28.284389687600 43.310000000000 0.000000000000
88 1 29.514145760974 44.020000000000 0.000000000000
89 1 29.514145760974 45.440000000000 0.000000000000
90 1 30.743901834348 46.150000000000 0.000000000000
91 1 30.743901834348 47.570000000000 0.000000000000
92 1 31.973657907721 48.280000000000 0.000000000000
93 1 6.148780366870 0.710000000000 0.000000000000
94 1 7.378536440243 1.420000000000 0.000000000000
95 1 7.378536440243 2.840000000000 0.000000000000
96 1 8.608292513617 3.550000000000 0.000000000000
97 1 8.608292513617 4.970000000000 0.000000000000
98 1 9.838048586991 5.680000000000 0.000000000000
99 1 9.838048586991 7.100000000000 0.000000000000
100 1 11.067804660365 7.810000000000 0.000000000000
101 1 11.067804660365 9.230000000000 0.000000000000
102 1 12.297560733739 9.940000000000 0.000000000000
103 1 12.297560733739 11.360000000000 0.000000000000
104 1 13.527316807113 12.070000000000 0.000000000000
105 1 13.527316807113 13.490000000000 0.000000000000
106 1 14.757072880487 14.200000000000 0.000000000000
107 1 14.757072880487 15.620000000000 0.000000000000
108 1 15.986828953861 16.330000000000 0.000000000000
109 1 15.986828953861 17.750000000000 0.000000000000
110 1 17.216585027235 18.460000000000 0.000000000000
111 1 17.216585027235 19.880000000000 0.000000000000
112 1 18.446341100609 20.590000000000 0.000000000000
113 1 18.446341100609 22.010000000000 0.000000000000
114 1 19.676097173982 22.720000000000 0.000000000000
115 1 19.676097173982 24.140000000000 0.000000000000
116 1 20.905853247356 24.850000000000 0.000000000000
117 1 20.905853247356 26.270000000000 0.000000000000
118 1 22.135609320730 26.980000000000 0.000000000000
119 1 22.135609320730 28.400000000000 0.000000000000
120 1 23.365365394104 29.110000000000 0.000000000000
121 1 23.365365394104 30.530000000000 0.000000000000
122 1 24.595121467478 31.240000000000 0.000000000000
123 1 24.595121467478 32.660000000000 0.000000000000
124 1 25.824877540852 33.370000000000 0.000000000000
125 1 25.824877540852 34.790000000000 0.000000000000
126 1 27.054633614226 35.500000000000 0.000000000000
127 1 27.054633614226 36.920000000000 0.000000000000
128 1 28.284389687600 37.630000000000 0.000000000000
129 1 28.284389687600 39.050000000000 0.000000000000
130 1 29.514145760974 39.760000000000 0.000000000000
131 1 29.514145760974 41.180000000000 0.000000000000
132 1 30.743901834348 41.890000000000 0.000000000000
133 1 30.743901834348 43.310000000000 0.000000000000
134 1 31.973657907721 44.020000000000 0.000000000000
135 1 31.973657907721 45.440000000000 0.000000000000
136 1 33.203413981095 46.150000000000 0.000000000000
137 1 33.203413981095 47.570000000000 0.000000000000
138 1 34.433170054469 48.280000000000 0.000000000000
139 1 8.608292513617 0.710000000000 0.000000000000
140 1 9.838048586991 1.420000000000 0.000000000000
141 1 9.838048586991 2.840000000000 0.000000000000
142 1 11.067804660365 3.550000000000 0.000000000000
143 1 11.067804660365 4.970000000000 0.000000000000
144 1 12.297560733739 5.680000000000 0.000000000000
145 1 12.297560733739 7.100000000000 0.000000000000
146 1 13.527316807113 7.810000000000 0.000000000000
147 1 13.527316807113 9.230000000000 0.000000000000
148 1 14.757072880487 9.940000000000 0.000000000000
149 1 14.757072880487 11.360000000000 0.000000000000
150 1 15.986828953861 12.070000000000 0.000000000000
151 1 15.986828953861 13.490000000000 0.000000000000
152 1 17.216585027235 14.200000000000 0.000000000000
153 1 17.216585027235 15.620000000000 0.000000000000
154 1 18.446341100609 16.330000000000 0.000000000000
155 1 18.446341100609 17.750000000000 0.000000000000
156 1 19.676097173982 18.460000000000 0.000000000000
157 1 19.676097173982 19.880000000000 0.000000000000
158 1 20.905853247356 20.590000000000 0.000000000000
159 1 20.905853247356 22.010000000000 0.000000000000
160 1 22.135609320730 22.720000000000 0.000000000000
161 1 22.135609320730 24.140000000000 0.000000000000
162 1 23.365365394104 24.850000000000 0.000000000000
163 1 23.365365394104 26.270000000000 0.000000000000
164 1 24.595121467478 26.980000000000 0.000000000000
165 1 24.595121467478 28.400000000000 0.000000000000
166 1 25.824877540852 29.110000000000 0.000000000000
167 1 25.824877540852 30.530000000000 0.000000000000
168 1 27.054633614226 31.240000000000 0.000000000000
169 1 27.054633614226 32.660000000000 0.000000000000
170 1 28.284389687600 33.370000000000 0.000000000000
171 1 28.284389687600 34.790000000000 0.000000000000
172 1 29.514145760974 35.500000000000 0.000000000000
173 1 29.514145760974 36.920000000000 0.000000000000
174 1 30.743901834348 37.630000000000 0.000000000000
175 1 30.743901834348 39.050000000000 0.000000000000
176 1 31.973657907721 39.760000000000 0.000000000000
177 1 31.973657907721 41.180000000000 0.000000000000
178 1 33.203413981095 41.890000000000 0.000000000000
179 1 33.203413981095 43.310000000000 0.000000000000
180 1 34.433170054469 44.020000000000 0.000000000000
181 1 34.433170054469 45.440000000000 0.000000000000
182 1 35.662926127843 46.150000000000 0.000000000000
183 1 35.662926127843 47.570000000000 0.000000000000
184 1 36.892682201217 48.280000000000 0.000000000000
185 1 11.067804660365 0.710000000000 0.000000000000
186 1 12.297560733739 1.420000000000 0.000000000000
187 1 12.297560733739 2.840000000000 0.000000000000
188 1 13.527316807113 3.550000000000 0.000000000000
189 1 13.527316807113 4.970000000000 0.000000000000
190 1 14.757072880487 5.680000000000 0.000000000000
191 1 14.757072880487 7.100000000000 0.000000000000
192 1 15.986828953861 7.810000000000 0.000000000000
193 1 15.986828953861 9.230000000000 0.000000000000
194 1 17.216585027235 9.940000000000 0.000000000000
195 1 17.216585027235 11.360000000000 0.000000000000
196 1 18.446341100609 12.070000000000 0.000000000000
197 1 18.446341100609 13.490000000000 0.000000000000
198 1 19.676097173982 14.200000000000 0.000000000000
199 1 19.676097173982 15.620000000000 0.000000000000
200 1 20.905853247356 16.330000000000 0.000000000000
201 1 20.905853247356 17.750000000000 0.000000000000
202 1 22.135609320730 18.460000000000 0.000000000000
203 1 22.135609320730 19.880000000000 0.000000000000
204 1 23.365365394104 20.590000000000 0.000000000000
205 1 23.365365394104 22.010000000000 0.000000000000
206 1 24.595121467478 22.720000000000 0.000000000000
207 1 24.595121467478 24.140000000000 0.000000000000
208 1 25.824877540852 24.850000000000 0.000000000000
209 1 25.824877540852 26.270000000000 0.000000000000
210 1 27.054633614226 26.980000000000 0.000000000000
211 1 27.054633614226 28.400000000000 0.000000000000
212 1 28.284389687600 29.110000000000 0.000000000000
213 1 28.284389687600 30.530000000000 0.000000000000
214 1 29.514145760974 31.240000000000 0.000000000000
215 1 29.514145760974 32.660000000000 0.000000000000
216 1 30.743901834348 33.370000000000 0.000000000000
217 1 30.743901834348 34.790000000000 0.000000000000
218 1 31.973657907721 35.500000000000 0.000000000000
219 1 31.973657907721 36.920000000000 0.000000000000
220 1 33.203413981095 37.630000000000 0.000000000000
221 1 33.203413981095 39.050000000000 0.000000000000
222 1 34.433170054469 39.760000000000 0.000000000000
223 1 34.433170054469 41.180000000000 0.000000000000
224 1 35.662926127843 41.890000000000 0.000000000000
225 1 35.662926127843 43.310000000000 0.000000000000
226 1 36.892682201217 44.020000000000 0.000000000000
227 1 36.892682201217 45.440000000000 0.000000000000
228 1 38.122438274591 46.150000000000 0.000000000000
229 1 38.122438274591 47.570000000000 0.000000000000
230 1 39.352194347965 48.280000000000 0.000000000000
231 1 13.527316807113 0.710000000000 0.000000000000
232 1 14.757072880487 1.420000000000 0.000000000000
233 1 14.757072880487 2.840000000000 0.000000000000
234 1 15.986828953861 3.550000000000 0.000000000000
235 1 15.986828953861 4.970000000000 0.000000000000
236 1 17.216585027235 5.680000000000 0.000000000000
237 1 17.216585027235 7.100000000000 0.000000000000
238 1 18.446341100609 7.810000000000 0.000000000000
239 1 18.446341100609 9.230000000000 0.000000000000
240 1 19.676097173982 9.940000000000 0.000000000000
241 1 19.676097173982 11.360000000000 0.000000000000
242 1 20.905853247356 12.070000000000 0.000000000000
243 1 20.905853247356 13.490000000000 0.000000000000
244 1 22.135609320730 14.200000000000 0.000000000000
245 1 22.135609320730 15.620000000000 0.000000000000
246 1 23.365365394104 16.330000000000 0.000000000000
247 1 23.365365394104 17.750000000000 0.000000000000
248 1 24.595121467478 18.460000000000 0.000000000000
249 1 24.595121467478 19.880000000000 0.000000000000
250 1 25.824877540852 20.590000000000 0.000000000000
251 1 25.824877540852 22.010000000000 0.000000000000
252 1 27.054633614226 22.720000000000 0.000000000000
253 1 27.054633614226 24.140000000000 0.000000000000
254 1 28.284389687600 24.850000000000 0.000000000000
255 1 28.284389687600 26.270000000000 0.000000000000
256 1 29.514145760974 26.980000000000 0.000000000000
257 1 29.514145760974 28.400000000000 0.000000000000
258 1 30.743901834348 29.110000000000 0.000000000000
259 1 30.743901834348 30.530000000000 0.000000000000
260 1 31.973657907721 31.240000000000 0.000000000000
261 1 31.973657907721 32.660000000000 0.000000000000
262 1 33.203413981095 33.370000000000 0.000000000000
263 1 33.203413981095 34.790000000000 0.000000000000
264 1 34.433170054469 35.500000000000 0.000000000000
265 1 34.433170054469 36.920000000000 0.000000000000
266 1 35.662926127843 37.630000000000 0.000000000000
267 1 35.662926127843 39.050000000000 0.000000000000
268 1 36.892682201217 39.760000000000 0.000000000000
269 1 36.892682201217 41.180000000000 0.000000000000
270 1 38.122438274591 41.890000000000 0.000000000000
271 1 38.122438274591 43.310000000000 0.000000000000
272 1 39.352194347965 44.020000000000 0.000000000000
273 1 39.352194347965 45.440000000000 0.000000000000
274 1 40.581950421339 46.150000000000 0.000000000000
275 1 40.581950421339 47.570000000000 0.000000000000
276 1 41.811706494713 48.280000000000 0.000000000000
277 1 15.986828953861 0.710000000000 0.000000000000
278 1 17.216585027235 1.420000000000 0.000000000000
279 1 17.216585027235 2.840000000000 0.000000000000
280 1 18.446341100609 3.550000000000 0.000000000000
281 1 18.446341100609 4.970000000000 0.000000000000
282 1 19.676097173982 5.680000000000 0.000000000000
283 1 19.676097173982 7.100000000000 0.000000000000
284 1 20.905853247356 7.810000000000 0.000000000000
285 1 20.905853247356 9.230000000000 0.000000000000
286 1 22.135609320730 9.940000000000 0.000000000000
287 1 22.135609320730 11.360000000000 0.000000000000
288 1 23.365365394104 12.070000000000 0.000000000000
289 1 23.365365394104 13.490000000000 0.000000000000
290 1 24.595121467478 14.200000000000 0.000000000000
291 1 24.595121467478 15.620000000000 0.000000000000
292 1 25.824877540852 16.330000000000 0.000000000000
293 1 25.824877540852 17.750000000000 0.000000000000
294 1 27.054633614226 18.460000000000 0.000000000000
295 1 27.054633614226 19.880000000000 0.000000000000
296 1 28.284389687600 20.590000000000 0.000000000000
297 1 28.284389687600 22.010000000000 0.000000000000
298 1 29.514145760974 22.720000000000 0.000000000000
299 1 29.514145760974 24.140000000000 0.000000000000
300 1 30.743901834348 24.850000000000 0.000000000000
301 1 30.743901834348 26.270000000000 0.000000000000
302 1 31.973657907721 26.980000000000 0.000000000000
303 1 31.973657907721 28.400000000000 0.000000000000
304 1 33.203413981095 29.110000000000 0.000000000000
305 1 33.203413981095 30.530000000000 0.000000000000
306 1 34.433170054469 31.240000000000 0.000000000000
307 1 34.433170054469 32.660000000000 0.000000000000
308 1 35.662926127843 33.370000000000 0.000000000000
309 1 35.662926127843 34.790000000000 0.000000000000
310 1 36.892682201217 35.500000000000 0.000000000000
311 1 36.892682201217 36.920000000000 0.000000000000
312 1 38.122438274591 37.630000000000 0.000000000000
313 1 38.122438274591 39.050000000000 0.000000000000
314 1 39.352194347965 39.760000000000 0.000000000000
315 1 39.352194347965 41.180000000000 0.000000000000
316 1 40.581950421339 41.890000000000 0.000000000000
317 1 40.581950421339 43.310000000000 0.000000000000
318 1 41.811706494713 44.020000000000 0.000000000000
319 1 41.811706494713 45.440000000000 0.000000000000
320 1 43.041462568087 46.150000000000 0.000000000000
321 1 43.041462568087 47.570000000000 0.000000000000
322 1 44.271218641461 48.280000000000 0.000000000000
323 1 18.446341100609 0.710000000000 0.000000000000
324 1 19.676097173982 1.420000000000 0.000000000000
325 1 19.676097173982 2.840000000000 0.000000000000
326 1 20.905853247356 3.550000000000 0.000000000000
327 1 20.905853247356 4.970000000000 0.000000000000
328 1 22.135609320730 5.680000000000 0.000000000000
329 1 22.135609320730 7.100000000000 0.000000000000
330 1 23.365365394104 7.810000000000 0.000000000000
331 1 23.365365394104 9.230000000000 0.000000000000
332 1 24.595121467478 9.940000000000 0.000000000000
333 1 24.595121467478 11.360000000000 0.000000000000
334 1 25.824877540852 12.070000000000 0.000000000000
335 1 25.824877540852 13.490000000000 0.000000000000
336 1 27.054633614226 14.200000000000 0.000000000000
337 1 27.054633614226 15.620000000000 0.000000000000
338 1 28.284389687600 16.330000000000 0.000000000000
339 1 28.284389687600 17.750000000000 0.000000000000
340 1 29.514145760974 18.460000000000 0.000000000000
341 1 29.514145760974 19.880000000000 0.000000000000
342 1 30.743901834348 20.590000000000 0.000000000000
343 1 30.743901834348 22.010000000000 0.000000000000
344 1 31.973657907721 22.720000000000 0.000000000000
345 1 31.973657907721 24.140000000000 0.000000000000
346 1 33.203413981095 24.850000000000 0.000000000000
347 1 33.203413981095 26.270000000000 0.000000000000
348 1 34.433170054469 26.980000000000 0.000000000000
349 1 34.433170054469 28.400000000000 0.000000000000
350 1 35.662926127843 29.110000000000 0.000000000000
351 1 35.662926127843 30.530000000000 0.000000000000
352 1 36.892682201217 31.240000000000 0.000000000000
353 1 36.892682201217 32.660000000000 0.000000000000
354 1 38.122438274591 33.370000000000 0.000000000000
355 1 38.122438274591 34.790000000000 0.000000000000
356 1 39.352194347965 35.500000000000 0.000000000000
357 1 39.352194347965 36.920000000000 0.000000000000
358 1 40.581950421339 37.630000000000 0.000000000000
359 1 40.581950421339 39.050000000000 0.000000000000
360 1 41.811706494713 39.760000000000 0.000000000000
361 1 41.811706494713 41.180000000000 0.000000000000
362 1 43.041462568087 41.890000000000 0.000000000000
363 1 43.041462568087 43.310000000000 0.000000000000
364 1 44.271218641461 44.020000000000 0.000000000000
365 1 44.271218641461 45.440000000000 0.000000000000
366 1 45.500974714834 46.150000000000 0.000000000000
367 1 45.500974714834 47.570000000000 0.000000000000
368 1 46.730730788208 48.280000000000 0.000000000000
369 1 20.905853247356 0.710000000000 0.000000000000
370 1 22.135609320730 1.420000000000 0.000000000000
371 1 22.135609320730 2.840000000000 0.000000000000
372 1 23.365365394104 3.550000000000 0.000000000000
373 1 23.365365394104 4.970000000000 0.000000000000
374 1 24.595121467478 5.680000000000 0.000000000000
375 1 24.595121467478 7.100000000000 0.000000000000
376 1 25.824877540852 7.810000000000 0.000000000000
377 1 25.824877540852 9.230000000000 0.000000000000
378 1 27.054633614226 9.940000000000 0.000000000000
379 1 27.054633614226 11.360000000000 0.000000000000
380 1 28.284389687600 12.070000000000 0.000000000000
381 1 28.284389687600 13.490000000000 0.000000000000
382 1 29.514145760974 14.200000000000 0.000000000000
383 1 29.514145760974 15.620000000000 0.000000000000
384 1 30.743901834348 16.330000000000 0.000000000000
385 1 30.743901834348 17.750000000000 0.000000000000
386 1 31.973657907721 18.460000000000 0.000000000000
387 1 31.973657907721 19.880000000000 0.000000000000
388 1 33.203413981095 20.590000000000 0.000000000000
389 1 33.203413981095 22.010000000000 0.000000000000
390 1 34.433170054469 22.720000000000 0.000000000000
391 1 34.433170054469 24.140000000000 0.000000000000
392 1 35.662926127843 24.850000000000 0.000000000000
393 1 35.662926127843 26.270000000000 0.000000000000
394 1 36.892682201217 26.980000000000 0.000000000000
395 1 36.892682201217 28.400000000000 0.000000000000
396 1 38.122438274591 29.110000000000 0.000000000000
397 1 38.122438274591 30.530000000000 0.000000000000
398 1 39.352194347965 31.240000000000 0.000000000000
399 1 39.352194347965 32.660000000000 0.000000000000
400 1 40.581950421339 33.370000000000 0.000000000000
401 1 40.581950421339 34.790000000000 0.000000000000
402 1 41.811706494713 35.500000000000 0.000000000000
403 1 41.811706494713 36.920000000000 0.000000000000
404 1 43.041462568087 37.630000000000 0.000000000000
405 1 43.041462568087 39.050000000000 0.000000000000
406 1 44.271218641461 39.760000000000 0.000000000000
407 1 44.271218641461 41.180000000000 0.000000000000
408 1 45.500974714834 41.890000000000 0.000000000000
409 1 45.500974714834 43.310000000000 0.000000000000
410 1 46.730730788208 44.020000000000 0.000000000000
411 1 46.730730788208 45.440000000000 0.000000000000
412 1 47.960486861582 46.150000000000 0.000000000000
413 1 47.960486861582 47.570000000000 0.000000000000
414 1 49.190242934956 48.280000000000 0.000000000000
415 1 23.365365394104 0.710000000000 0.000000000000
416 1 24.595121467478 1.420000000000 0.000000000000
417 1 24.595121467478 2.840000000000 0.000000000000
418 1 25.824877540852 3.550000000000 0.000000000000
419 1 25.824877540852 4.970000000000 0.000000000000
420 1 27.054633614226 5.680000000000 0.000000000000
421 1 27.054633614226 7.100000000000 0.000000000000
422 1 28.284389687600 7.810000000000 0.000000000000
423 1 28.284389687600 9.230000000000 0.000000000000
424 1 29.514145760974 9.940000000000 0.000000000000
425 1 29.514145760974 11.360000000000 0.000000000000
426 1 30.743901834348 12.070000000000 0.000000000000
427 1 30.743901834348 13.490000000000 0.000000000000
428 1 31.973657907721 14.200000000000 0.000000000000
429 1 31.973657907721 15.620000000000 0.000000000000
430 1 33.203413981095 16.330000000000 0.000000000000
431 1 33.203413981095 17.750000000000 0.000000000000
432 1 34.433170054469 18.460000000000 0.000000000000
433 1 34.433170054469 19.880000000000 0.000000000000
434 1 35.662926127843 20.590000000000 0.000000000000
435 1 35.662926127843 22.010000000000 0.000000000000
436 1 36.892682201217 22.720000000000 0.000000000000
437 1 36.892682201217 24.140000000000 0.000000000000
438 1 38.122438274591 24.850000000000 0.000000000000
439 1 38.122438274591 26.270000000000 0.000000000000
440 1 39.352194347965 26.980000000000 0.000000000000
441 1 39.352194347965 28.400000000000 0.000000000000
442 1 40.581950421339 29.110000000000 0.000000000000
443 1 40.581950421339 30.530000000000 0.000000000000
444 1 41.811706494713 31.240000000000 0.000000000000
445 1 41.811706494713 32.660000000000 0.000000000000
446 1 43.041462568087 33.370000000000 0.000000000000
447 1 43.041462568087 34.790000000000 0.000000000000
448 1 44.271218641461 35.500000000000 0.000000000000
449 1 44.271218641461 36.920000000000 0.000000000000
450 1 45.500974714834 37.630000000000 0.000000000000
451 1 45.500974714834 39.050000000000 0.000000000000
452 1 46.730730788208 39.760000000000 0.000000000000
453 1 46.730730788208 41.180000000000 0.000000000000
454 1 47.960486861582 41.890000000000 0.000000000000
455 1 47.960486861582 43.310000000000 0.000000000000
456 1 49.190242934956 44.020000000000 0.000000000000
457 1 49.190242934956 45.440000000000 0.000000000000
458 1 50.419999008330 46.150000000000 0.000000000000
459 1 50.419999008330 47.570000000000 0.000000000000
460 1 51.649755081704 48.280000000000 0.000000000000
461 1 25.824877540852 0.710000000000 0.000000000000
462 1 27.054633614226 1.420000000000 0.000000000000
463 1 27.054633614226 2.840000000000 0.000000000000
464 1 28.284389687600 3.550000000000 0.000000000000
465 1 28.284389687600 4.970000000000 0.000000000000
466 1 29.514145760974 5.680000000000 0.000000000000
467 1 29.514145760974 7.100000000000 0.000000000000
468 1 30.743901834348 7.810000000000 0.000000000000
469 1 30.743901834348 9.230000000000 0.000000000000
470 1 31.973657907721 9.940000000000 0.000000000000
471 1 31.973657907721 11.360000000000 0.000000000000
472 1 33.203413981095 12.070000000000 0.000000000000
473 1 33.203413981095 13.490000000000 0.000000000000
474 1 34.433170054469 14.200000000000 0.000000000000
475 1 34.433170054469 15.620000000000 0.000000000000
476 1 35.662926127843 16.330000000000 0.000000000000
477 1 35.662926127843 17.750000000000 0.000000000000
478 1 36.892682201217 18.460000000000 0.000000000000
479 1 36.892682201217 19.880000000000 0.000000000000
480 1 38.122438274591 20.590000000000 0.000000000000
481 1 38.122438274591 22.010000000000 0.000000000000
482 1 39.352194347965 22.720000000000 0.000000000000
483 1 39.352194347965 24.140000000000 0.000000000000
484 1 40.581950421339 24.850000000000 0.000000000000
485 1 40.581950421339 26.270000000000 0.000000000000
486 1 41.811706494713 26.980000000000 0.000000000000
487 1 41.811706494713 28.400000000000 0.000000000000
488 1 43.041462568087 29.110000000000 0.000000000000
489 1 43.041462568087 30.530000000000 0.000000000000
490 1 44.271218641461 31.240000000000 0.000000000000
491 1 44.271218641461 32.660000000000 0.000000000000
492 1 45.500974714834 33.370000000000 0.000000000000
493 1 45.500974714834 34.790000000000 0.000000000000
494 1 46.730730788208 35.500000000000 0.000000000000
495 1 46.730730788208 36.920000000000 0.000000000000
496 1 47.960486861582 37.630000000000 0.000000000000
497 1 47.960486861582 39.050000000000 0.000000000000
498 1 49.190242934956 39.760000000000 0.000000000000
499 1 49.190242934956 41.180000000000 0.000000000000
500 1 50.419999008330 41.890000000000 0.000000000000
501 1 50.419999008330 43.310000000000 0.000000000000
502 1 51.649755081704 44.020000000000 0.000000000000
503 1 51.649755081704 45.440000000000 0.000000000000
504 1 52.879511155078 46.150000000000 0.000000000000
505 1 52.879511155078 47.570000000000 0.000000000000
506 1 54.109267228452 48.280000000000 0.000000000000
507 1 28.284389687600 0.710000000000 0.000000000000
508 1 29.514145760974 1.420000000000 0.000000000000
509 1 29.514145760974 2.840000000000 0.000000000000
510 1 30.743901834348 3.550000000000 0.000000000000
511 1 30.743901834348 4.970000000000 0.000000000000
512 1 31.973657907721 5.680000000000 0.000000000000
513 1 31.973657907721 7.100000000000 0.000000000000
514 1 33.203413981095 7.810000000000 0.000000000000
515 1 33.203413981095 9.230000000000 0.000000000000
516 1 34.433170054469 9.940000000000 0.000000000000
517 1 34.433170054469 11.360000000000 0.000000000000
518 1 35.662926127843 12.070000000000 0.000000000000
519 1 35.662926127843 13.490000000000 0.000000000000
520 1 36.892682201217 14.200000000000 0.000000000000
521 1 36.892682201217 15.620000000000 0.000000000000
522 1 38.122438274591 16.330000000000 0.000000000000
523 1 38.122438274591 17.750000000000 0.000000000000
524 1 39.352194347965 18.460000000000 0.000000000000
525 1 39.352194347965 19.880000000000 0.000000000000
526 1 40.581950421339 20.590000000000 0.000000000000
527 1 40.581950421339 22.010000000000 0.000000000000
528 1 41.811706494713 22.720000000000 0.000000000000
529 1 41.811706494713 24.140000000000 0.000000000000
530 1 43.041462568087 24.850000000000 0.000000000000
531 1 43.041462568087 26.270000000000 0.000000000000
532 1 44.271218641461 26.980000000000 0.000000000000
533 1 44.271218641461 28.400000000000 0.000000000000
534 1 45.500974714834 29.110000000000 0.000000000000
535 1 45.500974714834 30.530000000000 0.000000000000
536 1 46.730730788208 31.240000000000 0.000000000000
537 1 46.730730788208 32.660000000000 0.000000000000
538 1 47.960486861582 33.370000000000 0.000000000000
539 1 47.960486861582 34.790000000000 0.000000000000
540 1 49.190242934956 35.500000000000 0.000000000000
541 1 49.190242934956 36.920000000000 0.000000000000
542 1 50.419999008330 37.630000000000 0.000000000000
543 1 50.419999008330 39.050000000000 0.000000000000
544 1 51.649755081704 39.760000000000 0.000000000000
545 1 51.649755081704 41.180000000000 0.000000000000
546 1 52.879511155078 41.890000000000 0.000000000000
547 1 52.879511155078 43.310000000000 0.000000000000
548 1 54.109267228452 44.020000000000 0.000000000000
549 1 54.109267228452 45.440000000000 0.000000000000
550 1 55.339023301826 46.150000000000 0.000000000000
551 1 55.339023301826 47.570000000000 0.000000000000
552 1 56.568779375200 48.280000000000 0.000000000000
553 1 30.743901834348 0.710000000000 0.000000000000
554 1 31.973657907721 1.420000000000 0.000000000000
555 1 31.973657907721 2.840000000000 0.000000000000
556 1 33.203413981095 3.550000000000 0.000000000000
557 1 33.203413981095 4.970000000000 0.000000000000
558 1 34.433170054469 5.680000000000 0.000000000000
559 1 34.433170054469 7.100000000000 0.000000000000
560 1 35.662926127843 7.810000000000 0.000000000000
561 1 35.662926127843 9.230000000000 0.000000000000
562 1 36.892682201217 9.940000000000 0.000000000000
563 1 36.892682201217 11.360000000000 0.000000000000
564 1 38.122438274591 12.070000000000 0.000000000000