LAMMPS data file via write_data, version 22 Jul 2025, timestep = 1712, units = metal

1105 atoms
2 atom types

0.31488 59.943127 xlo xhi
0.6362 48.353849 ylo yhi
-20 20 zlo zhi

Masses

1 12.011
2 1.008

Atoms # atomic

1 1 0.9356508224085293 1.3611367346355616 0.9719046675970687 0 0 0
2 1 2.177905924180575 1.9826655227006207 0.933498236716621 0 0 0
3 1 2.1779058332668972 3.3884910150800134 0.8445963640326551 0 0 0
4 1 3.4201610905376656 4.061828136182183 0.803460077104883 0 0 0
5 1 3.42016108876207 5.463248194446701 0.7219748002599083 0 0 0
47 1 3.4201610613184936 1.3611383538889203 0.971927985013751 0 0 0
48 1 4.662416286088267 1.982667808598349 0.9335328755233692 0 0 0
49 1 4.662416337636996 3.3884926851615385 0.8446213369541348 0 0 0
50 1 5.904671669576512 4.061829926215608 0.8034875025764646 0 0 0
51 1 5.904671878023028 5.463249512723287 0.7219943216568608 0 0 0
93 1 5.904671362985292 1.3611415226212766 0.9719768513611265 0 0 0
1062 1 0.9356504940748728 4.061827258663529 0.8034488450146152 0 0 0
1063 1 0.9356502994346739 5.463247545461999 0.721967450009164 0 0 0
6 1 4.662416479132185 6.13727224164092 0.6848010999467344 0 0 0
1064 1 2.177905633344452 6.137271369496227 0.6847896933246796 0 0 0
94 1 7.146926607282773 1.982670821429944 0.933579069000442 0 0 0
95 1 7.146926855654859 3.388495036089018 0.8446578432102417 0 0 0
96 1 8.389182259666704 4.06183216837721 0.803523900933645 0 0 0
97 1 8.38918267923235 5.4632512708388274 0.7220227789150131 0 0 0
139 1 8.389181633461362 1.3611447399600796 0.9720276903553674 0 0 0
140 1 9.63143685220899 1.9826741440280458 0.9336328144857483 0 0 0
141 1 9.63143737029601 3.388497807296169 0.8447038028067559 0 0 0
142 1 10.873692805010355 4.061835081655591 0.8035743047260254 0 0 0
143 1 10.87369344342581 5.463253583423759 0.7220631305659935 0 0 0
185 1 10.873691798494052 1.3611486968696414 0.9720958912347486 0 0 0
186 1 12.115946961939942 1.9826787375794723 0.9337128338471136 0 0 0
187 1 12.11594778144795 3.3885014960253748 0.8447699774411896 0 0 0
188 1 13.358203240729544 4.061838762141456 0.8036428058951369 0 0 0
189 1 13.358204100481284 5.463256403178651 0.7221169192098152 0 0 0
231 1 13.35820184142365 1.3611544755466032 0.9721994458258715 0 0 0
52 1 7.146927337782916 6.137273574304525 0.6848217609019204 0 0 0
98 1 9.631438184930113 6.1372753764680255 0.6848518465607921 0 0 0
144 1 12.11594898129175 6.13727771791152 0.6848938584484425 0 0 0
232 1 14.600456973578895 1.982684348732114 0.9338162002425614 0 0 0
233 1 14.600458067452587 3.388505837310743 0.8448533011169075 0 0 0
234 1 15.842713547671943 4.061842509419475 0.8037187903723214 0 0 0
235 1 15.842714586760508 5.463259224589786 0.7221769059673948 0 0 0
277 1 15.842711779205647 1.3611604974617175 0.9723134563532796 0 0 0
278 1 17.084966940610848 1.9826892771931077 0.9339151930277364 0 0 0
279 1 17.084968216427423 3.388509716603139 0.8449355430891895 0 0 0
280 1 18.327223685860936 4.061845674752502 0.8037906847803473 0 0 0
281 1 18.32722481905027 5.463261606733207 0.7222352081499916 0 0 0
323 1 18.3272216241227 1.3611651139359429 0.9724110910622336 0 0 0
324 1 19.56947686738536 1.9826932822269816 0.9340044749606365 0 0 0
325 1 19.569478189706803 3.388512892871637 0.8450117498735182 0 0 0
190 1 14.60045965545536 6.137280321145517 0.6849451505845374 0 0 0
236 1 17.084970103963556 6.137282735872645 0.6849982651221345 0 0 0
282 1 19.569480264343056 6.137284690324777 0.6850495642391586 0 0 0
326 1 20.81173366539371 4.061848369951293 0.8038609612468616 0 0 0
327 1 20.81173477902038 5.463263509598518 0.7222917742264056 0 0 0
369 1 20.811731385847786 1.3611694151244427 0.9725084616071419 0 0 0
370 1 22.05398683382312 1.9826974691296015 0.9341024128072615 0 0 0
371 1 22.053988059193436 3.3885159479344384 0.8450914078477967 0 0 0
372 1 23.296243555827346 4.061850832510755 0.8039324342227243 0 0 0
373 1 23.296244525022555 5.463265011175937 0.722346828136648 0 0 0
415 1 23.296241265222378 1.3611745132952384 0.9726217754893058 0 0 0
416 1 24.538496985597693 1.9827016278345722 0.9342022438065827 0 0 0
417 1 24.538497939190968 3.388518755772534 0.8451691588679798 0 0 0
418 1 25.78075343306736 4.061852594902352 0.8039922308762181 0 0 0
419 1 25.780754147391615 5.463265915058934 0.7223921906222406 0 0 0
461 1 25.780751455134745 1.3611787890953992 0.9727194767439653 0 0 0
328 1 22.05399014039079 6.1372861603765 0.6850995088252135 0 0 0
374 1 24.5384997757615 6.1372870801057005 0.6851444767209618 0 0 0
462 1 27.023007411567605 1.9827040627348327 0.934269315543389 0 0 0
463 1 27.02300792963782 3.3885203544570377 0.8452227736497251 0 0 0
464 1 28.2652634165736 4.061853097023121 0.804026004348514 0 0 0
465 1 28.265263805929123 5.4632659942074095 0.7224189626142808 0 0 0
507 1 28.265261934101876 1.3611802732625724 0.9727657211688715 0 0 0
508 1 29.507518078075776 1.9827043431944122 0.9342938002625045 0 0 0
509 1 29.507518101794084 3.388520475461586 0.8452448076415385 0 0 0
510 1 30.749773557481223 4.061852678682445 0.8040361554092775 0 0 0
511 1 30.74977361568337 5.46326546950473 0.7224273983172824 0 0 0
553 1 30.749772663190743 1.3611800026400538 0.9727757752681763 0 0 0
554 1 31.992028883593164 1.9827038129644943 0.9342962319343011 0 0 0
555 1 31.992028445823358 3.3885198978084023 0.8452464535152379 0 0 0
556 1 33.2342838114554 4.061851808372243 0.804028460061027 0 0 0
557 1 33.23428357056175 5.463264626638513 0.7224201256713858 0 0 0
599 1 33.234283590938176 1.361179392543188 0.9727710240755392 0 0 0
420 1 27.023009303888642 6.137287268286679 0.6851765833807211 0 0 0
466 1 29.507518904671638 6.137286794811653 0.6851920345850439 0 0 0
512 1 31.992028651873678 6.137285998929857 0.6851923480958959 0 0 0
600 1 34.47653972927921 1.9827024871720402 0.9342757217206007 0 0 0
601 1 34.4765388944059 3.3885186611607083 0.8452271634688702 0 0 0
602 1 35.71879409888251 4.061850148234682 0.8039965146866761 0 0 0
603 1 35.71879360504274 5.463263322491608 0.7223941430897558 0 0 0
645 1 35.71879461218969 1.3611770431068124 0.9727284196113085 0 0 0
646 1 36.96105049716644 1.9826991510436867 0.9342113491935614 0 0 0
647 1 36.96104935485793 3.3885161145372087 0.8451754527469233 0 0 0
648 1 38.20330437264063 4.061847532383591 0.8039380420308613 0 0 0
649 1 38.20330368017737 5.463261509832568 0.7223493493997467 0 0 0
691 1 38.2033055616097 1.3611720913514629 0.972633386122204 0 0 0
692 1 39.445561087525824 1.9826944160417388 0.9341137346034932 0 0 0
693 1 39.44555978144809 3.3885126890373116 0.8450992481403287 0 0 0
558 1 34.476538514861325 6.137284985399599 0.6851773154053362 0 0 0
604 1 36.96104844868665 6.137283621603603 0.685145388706609 0 0 0
650 1 39.44555844919509 6.13728203579288 0.6851007265486085 0 0 0
694 1 40.687814636528806 4.061844673004923 0.8038676645212838 0 0 0
695 1 40.68781378998871 5.4632595791692165 0.722294966166692 0 0 0
737 1 40.687816279769685 1.3611666065796335 0.9725222501535139 0 0 0
738 1 41.930071455054765 1.9826900343400073 0.934016957041856 0 0 0
739 1 41.930070130740575 3.3885094172850088 0.845020545957831 0 0 0
740 1 43.17232484216071 4.061842046380917 0.8037978652200871 0 0 0
741 1 43.17232388576474 5.4632577643274525 0.722239081913251 0 0 0
783 1 43.172326791705785 1.3611621819570725 0.9724249286548504 0 0 0
784 1 44.414581643685096 1.9826861366203534 0.9339266067280413 0 0 0
785 1 44.41458039931717 3.388506383147032 0.8449440165715878 0 0 0
786 1 45.65683502100489 4.061839289099091 0.8037255280215427 0 0 0
787 1 45.65683401599447 5.463255858994212 0.7221812030211379 0 0 0
829 1 45.656837157250735 1.361157657931827 0.9723246043735265 0 0 0
696 1 41.93006848119405 6.13728053766532 0.6850513938230065 0 0 0
742 1 44.4145785399817 6.13727905946101 0.6850009004348009 0 0 0
830 1 46.899091733082294 1.9826815357402208 0.9338249334148877 0 0 0
831 1 46.8990906501216 3.3885029165071123 0.8448604153151351 0 0 0
832 1 48.14134525558425 4.061836128810129 0.8036485647927245 0 0 0
833 1 48.1413442792934 5.463253697599646 0.7221212629261576 0 0 0
875 1 48.14134733902983 1.3611519223337956 0.9722071172220195 0 0 0
876 1 49.383601759173146 1.9826764164949986 0.9337188739590807 0 0 0
877 1 49.38360088900882 3.3884991392509347 0.8447754880923763 0 0 0
878 1 50.625855553715105 4.061833095731663 0.8035788645866399 0 0 0
879 1 50.6258546760024 5.463251572576208 0.7220670473268613 0 0 0
921 1 50.625857374225944 1.3611465965746181 0.9721008226007224 0 0 0
922 1 51.868111814919416 1.9826723774659936 0.9336367294371879 0 0 0
923 1 51.86811115302996 3.388496048115517 0.8447077563755335 0 0 0
924 1 53.110365949704274 4.061830762379227 0.8035270830033301 0 0 0
925 1 53.11036521268561 5.463249865866592 0.7220257989544389 0 0 0
967 1 53.11036738317731 1.3611431603712774 0.9720305127210698 0 0 0
788 1 46.89908872973332 6.1372773477769105 0.6849484594541881 0 0 0
834 1 49.38359910606344 6.137275486934358 0.6848973820311824 0 0 0
880 1 51.868109638814495 6.137273801659174 0.6848550150496999 0 0 0
968 1 54.35262198415698 1.9826695800816245 0.9335810585988228 0 0 0
969 1 54.3526214970006 3.3884938186332088 0.8446601944896792 0 0 0
970 1 55.594876407567405 4.061829021883948 0.8034892490956406 0 0 0
971 1 55.59487584146811 5.463248619234579 0.7219961919579471 0 0 0
1013 1 55.59487746655177 1.361140455954354 0.9719777105109249 0 0 0
1014 1 56.83713223372868 1.9826670584965018 0.9335332582293133 0 0 0
1015 1 56.83713188080799 3.3884919650319105 0.8446222472703823 0 0 0
1016 1 58.07938690993952 4.061827690588199 0.8034606877991523 0 0 0
1017 1 58.0793865316162 5.4632477626481535 0.7219756048244971 0 0 0
1059 1 58.07938763140177 1.3611377951309982 0.9719276901938843 0 0 0
1060 1 59.32164255071614 1.9826652696308145 0.9334981159157124 0 0 0
1061 1 59.321642326422555 3.388490779528886 0.8445965131271664 0 0 0
926 1 54.35262028793375 6.1372725268332085 0.6848240755348648 0 0 0
972 1 56.837131012972726 6.137271639799259 0.6848023914491117 0 0 0
1018 1 59.32164180360435 6.137271174130073 0.6847900943310308 0 0 0
7 1 4.662416557252422 7.53909634865041 0.6115257964460354 0 0 0
8 1 5.90467209085458 8.213319448039593 0.5780935569202423 0 0 0
9 1 5.904672230589466 9.615501833940073 0.5120508677230592 0 0 0
1020 1 0.9356499216554206 8.213318367955011 0.5780816418327185 0 0 0
1021 1 0.935649698685391 9.615500981758379 0.512043333830146 0 0 0
1022 1 2.177905254618626 10.289874822599668 0.48181472426292643 0 0 0
1023 1 2.1779051169647023 11.692332290815829 0.42189520561889454 0 0 0
1065 1 2.1779055130424 7.539095693089178 0.6115183735384583 0 0 0
1066 1 3.4201609861666715 8.213318728687701 0.5780845178295777 0 0 0
1067 1 3.4201609431298072 9.615501276042224 0.5120450680504675 0 0 0
1068 1 4.66241655731186 10.2898751628926 0.481817358387367 0 0 0
1069 1 4.662416588057229 11.69233255446182 0.4218962567664348 0 0 0
978 1 0.9356493305161144 12.366821200470168 0.3943612491384445 0 0 0
979 1 0.9356491138775646 13.769487775948058 0.3395570055354141 0 0 0
1024 1 3.4201608094789115 12.366821347117334 0.3943615201026646 0 0 0
1025 1 3.4201607611611795 13.769487898266462 0.33955685195936985 0 0 0
1070 1 5.904672318542915 12.366821671243846 0.3943629131886397 0 0 0
1071 1 5.904672426859687 13.769488151746426 0.3395565462439821 0 0 0
10 1 7.146927883497757 10.289875804285108 0.4818243008925796 0 0 0
11 1 7.146928095494834 11.692333085972875 0.4219006011928895 0 0 0
53 1 7.146927613545829 7.53909736445655 0.6115405328236575 0 0 0
54 1 8.38918319070354 8.213320532504982 0.5781095130843225 0 0 0
55 1 8.389183526304693 9.615502716186606 0.5120623661771292 0 0 0
56 1 9.631439232394436 10.289876791278573 0.481837309338342 0 0 0
57 1 9.631439648973311 11.69233394725776 0.42191036465990217 0 0 0
99 1 9.631438660447898 7.539098790124631 0.6115634510002694 0 0 0
100 1 10.873694281496395 8.213322032208993 0.5781337958389128 0 0 0
101 1 10.87369483042847 9.615503952662896 0.5120808300582017 0 0 0
102 1 12.115950579503085 10.28987807718079 0.4818563439555409 0 0 0
103 1 12.11595121342358 11.692335071204896 0.421925225636125 0 0 0
145 1 12.115949666059926 7.539100622021923 0.6115957047183427 0 0 0
146 1 13.358205311652434 8.21332382126051 0.5781655414642987 0 0 0
147 1 13.358206080011099 9.615505400006747 0.5121049369664525 0 0 0
12 1 8.389183879444337 12.366822298198498 0.3943685252150294 0 0 0
13 1 8.389184159360141 13.769488686455238 0.3395596825301893 0 0 0
58 1 10.873695491966162 12.366823249928737 0.3943796534342832 0 0 0
59 1 10.873695970556627 13.769489540576618 0.33956807182451165 0 0 0
104 1 13.358207078917639 12.366824461726315 0.39439432336283264 0 0 0
105 1 13.358207806300847 13.769490666598811 0.3395795906142955 0 0 0
148 1 14.600461824066713 10.289879538561445 0.4818788789857297 0 0 0
149 1 14.600462715741017 11.692336357848006 0.4219425327319704 0 0 0
191 1 14.600460542696501 7.539102608913151 0.611634895944429 0 0 0
192 1 15.842716156403831 8.213325666866892 0.5782010569557892 0 0 0
193 1 15.842717155371652 9.615506874058715 0.5121315652892094 0 0 0
194 1 17.08497284203575 10.289881009596273 0.4819021657590817 0 0 0
195 1 17.08497403264692 11.69233765488645 0.4219599415433217 0 0 0
237 1 17.084971152810947 7.539104421871975 0.6116759426627387 0 0 0
238 1 18.32722667930427 8.213327275653336 0.5782368393095757 0 0 0
239 1 18.32722787776916 9.615508122810482 0.5121584935753536 0 0 0
240 1 19.56948343482702 10.289882229955268 0.4819255771245031 0 0 0
241 1 19.569484909601236 11.69233872440413 0.4219776070604347 0 0 0
283 1 19.56948138395966 7.539105811937469 0.6117160714579977 0 0 0
150 1 15.842718579859989 12.366825846979664 0.3944096584127419 0 0 0
151 1 15.842719634379218 13.76949197640766 0.3395913059260016 0 0 0
196 1 18.327229829525052 12.366827266831846 0.39442484214812684 0 0 0
197 1 18.327231286447322 13.76949335218964 0.3396027895116452 0 0 0
284 1 20.81173677733663 8.21332841204962 0.5782717035518021 0 0 0
285 1 20.81173806128865 9.615508914223959 0.5121852096330094 0 0 0
286 1 22.053993386472108 10.289882985024013 0.4819489449913255 0 0 0
287 1 22.05399501686048 11.692339339170122 0.4219961455411748 0 0 0
329 1 22.053991194980078 7.5391066861574485 0.611754749366696 0 0 0
330 1 23.296246392171252 8.213328963696835 0.5783043498445505 0 0 0
331 1 23.29624755662473 9.615509087605028 0.5122105764071693 0 0 0
332 1 24.53850257627386 10.289882916275666 0.48197000692883374 0 0 0
333 1 24.538504025709994 11.692339050149208 0.4220137594678979 0 0 0
375 1 24.53850062305783 7.539107009893078 0.6117889967827037 0 0 0
376 1 25.78075563561214 8.213328843705302 0.5783307213118936 0 0 0
377 1 25.780756499127687 9.615508607631888 0.5122312234642551 0 0 0
242 1 20.811740526333384 12.366828551551327 0.39444089992583886 0 0 0
243 1 20.81174244219253 13.769494679689885 0.339615666241814 0 0 0
288 1 23.29625028396692 12.366829340821978 0.39445790043362 0 0 0
289 1 23.29625249990885 13.769495529856796 0.3396306920288109 0 0 0
334 1 25.780758820275135 12.366828844042287 0.39447305968617286 0 0 0
335 1 25.780760736504522 13.769494872649725 0.33964507939926947 0 0 0
378 1 27.02301127928324 10.289882002775396 0.48198524238260226 0 0 0
379 1 27.023012215165593 11.692337878151552 0.42202688546840217 0 0 0
421 1 27.023009851416045 7.539106748124629 0.6118134531653698 0 0 0
422 1 28.265264756873997 8.21332809360675 0.5783467379778642 0 0 0
423 1 28.26526522481697 9.61550758871255 0.512243658927081 0 0 0
424 1 29.507519855760815 10.289880613013292 0.4819921341352744 0 0 0
425 1 29.507520192469112 11.692336276645165 0.42203233734333856 0 0 0
467 1 29.50751913329714 7.5391060401898145 0.6118253023147513 0 0 0
468 1 30.74977397183429 8.213327070702855 0.5783514736151921 0 0 0
469 1 30.74977403743415 9.615506415162834 0.5122467221868566 0 0 0
470 1 31.99202859723781 10.289879266404652 0.48199008847954855 0 0 0
471 1 31.992028449167705 11.692334786294492 0.4220288667622779 0 0 0
513 1 31.99202859353547 7.539105188748971 0.6118249563704609 0 0 0
514 1 33.23428336901634 8.21332612064705 0.5783453329537375 0 0 0
515 1 33.23428312795168 9.615505449261645 0.5122406143730197 0 0 0
380 1 28.265266641594433 12.366827199528078 0.39448214090159106 0 0 0
381 1 28.26526767957356 13.769492900377362 0.33965316284542985 0 0 0
426 1 30.749774457831297 12.366825187642904 0.39448226085138133 0 0 0
427 1 30.74977454531986 13.769490556959335 0.33965064483518614 0 0 0
472 1 33.234282748517735 12.36682344335818 0.3944735500124479 0 0 0
473 1 33.234282237805786 13.769488627581351 0.3396389950269828 0 0 0
516 1 34.47653770442499 10.289878230437731 0.48197937538462426 0 0 0
517 1 34.47653725574402 11.692333699887142 0.4220172818806683 0 0 0
559 1 34.476538218547745 7.539104306815969 0.6118123075053877 0 0 0
560 1 35.71879295028487 8.213325218469166 0.5783279048057837 0 0 0
561 1 35.71879252234473 9.615504666608276 0.5122254174031343 0 0 0
562 1 36.96104710716338 10.28987751267768 0.4819610725093158 0 0 0
563 1 36.96104647235039 11.692333039508748 0.4219998195481694 0 0 0
605 1 36.9610479701802 7.539103304727312 0.6117870440944583 0 0 0
606 1 38.203302666928636 8.213324314396806 0.5783004498761977 0 0 0
607 1 38.2033020771329 9.61550402344528 0.5122027620112289 0 0 0
608 1 39.44555655656407 10.289877243116802 0.48193836053890804 0 0 0
609 1 39.445555664240274 11.692332990027252 0.42198017934446524 0 0 0
651 1 39.44555781781341 7.539102265014605 0.6117524500204683 0 0 0
518 1 35.718791678742974 12.3668222894671 0.39445820797746606 0 0 0
519 1 35.71879097266705 13.769487375740477 0.3396223931365134 0 0 0
564 1 38.20330079019998 12.366822088685277 0.3944395794235005 0 0 0
565 1 38.20329974247839 13.769487276531072 0.33960477742610273 0 0 0
652 1 40.68781243905621 8.213323611910466 0.5782676186241877 0 0 0
653 1 40.68781164252473 9.61550371414529 0.5121768157297981 0 0 0
654 1 41.930066040587015 10.28987732783 0.4819152112568106 0 0 0
655 1 41.93006485977967 11.692333462134263 0.4219620975388637 0 0 0
697 1 41.930067696640506 7.539101381970281 0.6117142256805046 0 0 0
698 1 43.17232228011079 8.213323059320963 0.5782336568301184 0 0 0
699 1 43.17232130818965 9.615503632572787 0.5121511024150736 0 0 0
700 1 44.41457584093917 10.289877286360513 0.48189359548430954 0 0 0
701 1 44.4145745581452 11.69233375653173 0.4219468246766416 0 0 0
743 1 44.414577634981825 7.539100541226238 0.6116752719632524 0 0 0
744 1 45.656832306142405 8.213322331219478 0.5781994483004381 0 0 0
745 1 45.656831272696735 9.61550338062648 0.5121262048310041 0 0 0
610 1 40.68780971267579 12.366822754022069 0.39442202338764615 0 0 0
611 1 40.687808148065244 13.76948841590029 0.33959054169374164 0 0 0
656 1 43.17231913955676 12.366823155451584 0.39440794778619487 0 0 0
657 1 43.17231744944517 13.769489108906907 0.3395811906615536 0 0 0
702 1 45.65682923469317 12.366823068152643 0.39439618850607155 0 0 0
703 1 45.65682768824016 13.769489195365722 0.3395743615019969 0 0 0
746 1 46.89908606297962 10.289876864536804 0.48187287460766415 0 0 0
747 1 46.89908485266093 11.69233361197226 0.4219327112086863 0 0 0
789 1 46.89908778163118 7.539099516606471 0.6116356026311552 0 0 0
790 1 48.14134263017946 8.213321343405816 0.5781655263488075 0 0 0
791 1 48.1413416411137 9.61550283951784 0.5121018547849782 0 0 0
792 1 49.38359667202838 10.289876209756805 0.4818528189888373 0 0 0
793 1 49.38359562842844 11.692333177965612 0.4219186732943048 0 0 0
835 1 49.383598205564134 7.539098330129406 0.6115974031512179 0 0 0
836 1 50.625853226756796 8.21332029279333 0.5781348233488367 0 0 0
837 1 50.625852343648155 9.615502168343484 0.5120795660447295 0 0 0
838 1 51.868107555496806 10.289875550197918 0.48183563341582886 0 0 0
839 1 51.86810669833157 11.692332696632967 0.42190648089314997 0 0 0
881 1 51.86810884309778 7.539097192024517 0.6115654732512178 0 0 0
882 1 53.11036400381956 8.213319372133096 0.5781108397694306 0 0 0
883 1 53.110363264996884 9.615501542052115 0.5120621470979867 0 0 0
748 1 48.1413398790251 12.366822589908962 0.39438463844257976 0 0 0
749 1 48.14133857945366 13.769488841487641 0.3395673377788194 0 0 0
794 1 50.62585089137886 12.366822003361957 0.3943733813236217 0 0 0
795 1 50.62584986371764 13.769488340589705 0.3395599047914982 0 0 0
840 1 53.110362123644 12.366821509489307 0.39436480973643123 0 0 0
841 1 53.11036134695075 13.76948793099876 0.3395545892277003 0 0 0
884 1 54.3526186140831 10.289875022793003 0.48182366571614876 0 0 0
885 1 54.35261794208781 11.692332310968874 0.4218984829767805 0 0 0
927 1 54.35261963558096 7.539096314110018 0.6115422346301725 0 0 0
928 1 55.59487490440588 8.213318729129368 0.5780946320853576 0 0 0
929 1 55.5948743357171 9.615501116012977 0.512051029014937 0 0 0
930 1 56.837129779084236 10.289874726754714 0.4818171496075339 0 0 0
931 1 56.8371292913433 11.69233212459914 0.42189518158988454 0 0 0
973 1 56.837130533614776 7.539095750625094 0.6115268413873091 0 0 0
974 1 58.07938589317676 8.213318388509826 0.5780850719394689 0 0 0
975 1 58.079385498449895 9.61550093709751 0.5120452031243989 0 0 0
976 1 59.321641000481414 10.28987468505211 0.48181467538404665 0 0 0
977 1 59.321640691087254 11.692332154207095 0.42189487092843897 0 0 0
1019 1 59.321641501395 7.53909550282054 0.6115187189037897 0 0 0
886 1 55.594873474997186 12.366821203907131 0.39436084517606596 0 0 0
887 1 55.59487290393651 13.76948771045335 0.339553550636961 0 0 0
932 1 58.07938488395382 12.3668211259511 0.39436055874616927 0 0 0
933 1 58.079384491376835 13.769487687688427 0.3395554055969921 0 0 0
936 1 0.9356487987133696 16.521530775466253 0.2401894572160225 0 0 0
937 1 0.9356486114221787 17.92447295330856 0.1929677645191831 0 0 0
980 1 2.177904888192088 14.444064199914434 0.3142608524374177 0 0 0
981 1 2.1779047564680094 15.846888821075572 0.26366560919814147 0 0 0
982 1 3.420160620749173 16.521530825036443 0.24018806950800664 0 0 0
983 1 3.420160542866464 17.92447297532543 0.1929657857799583 0 0 0
1026 1 4.6624165621541485 14.444064338156705 0.3142596255935275 0 0 0
1027 1 4.662416571259792 15.84688891199755 0.26366314016670744 0 0 0
1028 1 5.904672467817693 16.52153092000994 0.240184512473608 0 0 0
1029 1 5.904672512827716 17.9244730096013 0.19296059223831927 0 0 0
894 1 0.9356483836624094 20.67691387260227 0.10530628445330936 0 0 0
938 1 2.177904532067 18.599163095253033 0.17092217244848049 0 0 0
939 1 2.1779044175971403 20.00218993593482 0.12628812093424846 0 0 0
940 1 3.420160406253998 20.67691377206675 0.10530250543365943 0 0 0
984 1 4.662416486925672 18.599163060435615 0.17091757266319985 0 0 0
985 1 4.662416457571107 20.002189843915254 0.12628217861664123 0 0 0
986 1 5.904672494296579 20.676913585445288 0.10529427973996151 0 0 0
14 1 9.631440075654034 14.44406525437161 0.3142641773318533 0 0 0
15 1 9.631440394560743 15.84688965043001 0.26366288781516767 0 0 0
16 1 10.873696419932418 16.52153174142617 0.24018501061801212 0 0 0
17 1 10.8736967488835 17.924473592060902 0.19295446234499714 0 0 0
60 1 12.115951930450983 14.444066213017448 0.3142730539255597 0 0 0
61 1 12.11595245829928 15.846890497971753 0.26366836158472867 0 0 0
62 1 13.358208555331666 16.52153264904129 0.2401894685606122 0 0 0
63 1 13.35820909346062 17.924474347341583 0.19295425325158957 0 0 0
1072 1 7.146928271608106 14.444064646199955 0.3142596369407715 0 0 0
1073 1 7.146928427860626 15.84688914569822 0.26366114330272816 0 0 0
1074 1 8.389184394944156 16.521531174226816 0.2401828672214711 0 0 0
1075 1 8.389184572296497 17.924473164068385 0.19295609853684384 0 0 0
18 1 12.115952887515684 18.599163648329764 0.17090378209649576 0 0 0
19 1 12.11595319691495 20.002190090961168 0.1262590619693831 0 0 0
20 1 13.358209480973843 20.676913650925204 0.10526701823120489 0 0 0
1030 1 7.146928516371152 18.599163051400833 0.17091121558288988 0 0 0
1031 1 7.146928586602008 20.00218976251711 0.12627387210835234 0 0 0
1032 1 8.389184676147849 20.676913471220853 0.10528507513624955 0 0 0
1076 1 9.631440639217777 18.599163217048897 0.17090655912072228 0 0 0
1077 1 9.631440815968963 20.00218981910297 0.12626616429799617 0 0 0
1078 1 10.873696970539457 20.67691349472786 0.10527633206998663 0 0 0
106 1 14.600463816151825 14.444067445718224 0.31428336874233237 0 0 0
107 1 14.600464631120413 15.846891643219427 0.26367505347210596 0 0 0
108 1 15.842720820871127 16.521533839573866 0.2401938161479385 0 0 0
109 1 15.842721675134726 17.924475389374482 0.19295346969716856 0 0 0
152 1 17.0849756631037 14.444068884775872 0.31429316659437123 0 0 0
153 1 17.084976872810262 15.846893017924181 0.2636812640121481 0 0 0
154 1 18.32723311677007 16.521535420901678 0.24019819914365567 0 0 0
155 1 18.327234494388687 17.924476870619635 0.19295260806023457 0 0 0
198 1 19.569487246998786 14.444070563914842 0.31430356866820425 0 0 0
199 1 19.569489044263925 15.846894737321126 0.26368850032272695 0 0 0
64 1 14.600465361656212 18.599164341936774 0.17090084426831695 0 0 0
65 1 14.60046587460189 20.002190597195554 0.12625081356764842 0 0 0
66 1 15.842722343869514 20.676913996448494 0.10525504359172794 0 0 0
110 1 17.084978088021554 18.59916539409656 0.1708968744757386 0 0 0
111 1 17.08497895303865 20.00219143421482 0.1262402620680544 0 0 0
112 1 18.32723566823257 20.67691473720234 0.10524013743161187 0 0 0
156 1 19.56949107619725 18.599167113530008 0.1708936093871058 0 0 0
157 1 19.569492573148015 20.002192934825537 0.1262288470195026 0 0 0
200 1 20.811745281412065 16.521537683920066 0.24020515325574507 0 0 0
201 1 20.81174752842748 17.92447915408555 0.1929543935555758 0 0 0
244 1 22.05399818121403 14.444072450656652 0.31431657858797357 0 0 0
245 1 22.054000768923263 15.846896824513061 0.26369920397640595 0 0 0
246 1 23.29625675233202 16.521540715602068 0.24021619717305973 0 0 0
247 1 23.29626034439106 17.92448248108687 0.19296101065788535 0 0 0
290 1 24.53850772435057 14.44407375485044 0.31433131796082997 0 0 0
291 1 24.538510944149536 15.846898406064755 0.2637125375853188 0 0 0
292 1 25.780766206200774 16.521543255122257 0.24022769318488893 0 0 0
293 1 25.780771244601556 17.92448571309239 0.19296730763443873 0 0 0
158 1 20.811749643483775 20.676916268904034 0.10522439182417263 0 0 0
202 1 22.054004220692278 18.599170080104226 0.17089441820353474 0 0 0
203 1 22.054006955752783 20.002195747070434 0.1262197674984286 0 0 0
204 1 23.29626450027227 20.676919572426748 0.10520926435734151 0 0 0
248 1 24.53851686694656 18.599174860737904 0.17089879628040505 0 0 0
249 1 24.5385221539823 20.00220083108711 0.1262124006063031 0 0 0
250 1 25.780779966227357 20.67692661644237 0.10518695970761693 0 0 0
336 1 27.02301513236299 14.44407275459224 0.3143429512664107 0 0 0
337 1 27.023017762256302 15.846896988846895 0.26372232552744057 0 0 0
338 1 28.265271356554102 16.52154096279893 0.24022858632265048 0 0 0
339 1 28.265274962715807 17.924482085520488 0.19295556442820075 0 0 0
382 1 29.507521550565716 14.444070000680904 0.31434461126850183 0 0 0
383 1 29.50752252630969 15.84689355211256 0.26371832343819146 0 0 0
384 1 30.749775380268662 16.521536114966025 0.24020928964178048 0 0 0
385 1 30.74977574787861 17.924475993230324 0.1929125158992337 0 0 0
428 1 31.99202831662091 14.444066953724196 0.3143345256085831 0 0 0
429 1 31.992027881607463 15.846889982433593 0.263700607186363 0 0 0
430 1 33.234281496841284 16.521530550656472 0.24018679332230047 0 0 0
431 1 33.234280967093305 17.924469549602215 0.1928824421348441 0 0 0
294 1 27.023026681814105 18.599180542091844 0.17089278988604772 0 0 0
295 1 27.023035452262388 20.002208035586335 0.12618622600740526 0 0 0
296 1 28.265290506989096 20.676938327715316 0.10511266007913442 0 0 0
340 1 29.507526345331613 18.599174400881008 0.17084865822109999 0 0 0
341 1 29.507529972959773 20.002197035219 0.1260873748086666 0 0 0
342 1 30.749774600635046 20.676915535211645 0.10491443516115596 0 0 0
386 1 31.992027785440552 18.59916335912923 0.17078419730305597 0 0 0
387 1 31.992028647180543 20.002184199358744 0.12596805934942118 0 0 0
388 1 33.23429256675943 20.67688380029749 0.10487276959303225 0 0 0
474 1 34.476536415123164 14.44406445990604 0.31431870124579436 0 0 0
475 1 34.476535656588126 15.846887202977094 0.2636830705190552 0 0 0
476 1 35.71879006650081 16.521527935214444 0.24017589089109356 0 0 0
477 1 35.71878881224201 17.92446644021993 0.19289050410111153 0 0 0
520 1 36.96104519316592 14.44406379658582 0.3143015582067078 0 0 0
521 1 36.961043976761 15.846886583303144 0.26367008004245074 0 0 0
522 1 38.20329610189734 16.521531913910398 0.24017027332995297 0 0 0
523 1 38.20329247370713 17.92447310601038 0.19290528189567782 0 0 0
566 1 39.44555315732416 14.444065415861221 0.31428689263634335 0 0 0
567 1 39.44555090531223 15.846889204568784 0.26366165021418553 0 0 0
432 1 34.476536772998735 18.59915369134702 0.1707896691703725 0 0 0
433 1 34.4765367156285 20.00217132238594 0.1260245752452322 0 0 0
434 1 35.71877576682172 20.676914412294987 0.10506485863611739 0 0 0
478 1 36.96103781246234 18.599163891604555 0.17082451498956494 0 0 0
479 1 36.96103067816712 20.00219015654395 0.12613105129999505 0 0 0
480 1 38.20328132445825 20.67691837755156 0.1051706803018504 0 0 0
524 1 39.44554454797849 18.599166497854824 0.17085119049332337 0 0 0
525 1 39.445538445901185 20.002193427954463 0.1261892339485793 0 0 0
568 1 40.68780408692267 16.521533349242457 0.24016969669082708 0 0 0
569 1 40.68780043097411 17.924475178937126 0.1929190658490975 0 0 0
612 1 41.93006201312271 14.444066187386742 0.314277572668536 0 0 0
613 1 41.930059616758484 15.846890366734167 0.26365875655341175 0 0 0
614 1 43.172313984635096 16.5215332484611 0.24017264869529642 0 0 0
615 1 43.172311125708696 17.924475207010115 0.192931170377114 0 0 0
658 1 44.41457197283285 14.444066204620961 0.3142723930622092 0 0 0